66
Lattice="9.95606347910659 0.0 0.0 3.733523804664971 6.46665292094759 0.0 0.0 0.0 28.129091790189932" Properties=species:S:1:pos:R:3:move_mask:L:1:tags:I:1:forces:R:3 energy=-310.9069604396869 pbc="T T F"
Ni       0.00000000       1.43703398      10.00000000  F        5       0.00000000       0.00000000       0.00000000
Ni       2.48901587       1.43703398      10.00000000  F        5       0.00000000       0.00000000       0.00000000
Ni       4.97803174       1.43703398      10.00000000  F        5       0.00000000       0.00000000       0.00000000
Ni       7.46704761       1.43703398      10.00000000  F        5       0.00000000       0.00000000       0.00000000
Ni       1.24450793       3.59258496      10.00000000  F        5       0.00000000       0.00000000       0.00000000
Ni       3.73352380       3.59258496      10.00000000  F        5       0.00000000       0.00000000       0.00000000
Ni       6.22253967       3.59258496      10.00000000  F        5       0.00000000       0.00000000       0.00000000
Ni       8.71155554       3.59258496      10.00000000  F        5       0.00000000       0.00000000       0.00000000
Ni       2.48901587       5.74813593      10.00000000  F        5       0.00000000       0.00000000       0.00000000
Ni       4.97803174       5.74813593      10.00000000  F        5       0.00000000       0.00000000       0.00000000
Ni       7.46704761       5.74813593      10.00000000  F        5       0.00000000       0.00000000       0.00000000
Ni       9.95606348       5.74813593      10.00000000  F        5       0.00000000       0.00000000       0.00000000
Ni      -0.00994282       0.01273211      12.03658695  T        4      -0.00560240      -0.01307054       0.00604920
Ni       2.47828609       0.01285020      12.03619122  T        4       0.00460650      -0.01010890       0.00089034
Ni       4.96770758       0.01283525      12.03608811  T        4       0.00053851      -0.00967548       0.00350670
Ni       7.45706815       0.01233468      12.03612971  T        4      -0.00572296      -0.00720552      -0.00020081
Ni       1.23331122       2.16379375      12.03938591  T        4      -0.00179567       0.00035223      -0.00945033
Ni       3.72346852       2.16678765      12.03772496  T        4       0.00256262      -0.01300290      -0.00380851
Ni       6.21061795       2.16442075      12.03826881  T        4       0.00214616      -0.00287465      -0.00312469
Ni       8.70159573       2.16581108      12.03736786  T        4       0.00078559      -0.00858587      -0.00193737
Ni       2.47750190       4.31861150      12.02896061  T        4       0.00329933       0.00216157      -0.00417769
Ni       4.96787410       4.31864045      12.03105874  T        4      -0.00092509      -0.00672222      -0.00076381
Ni       7.45588221       4.31936986      12.02835980  T        4      -0.00216960      -0.00465454      -0.00223151
Ni       9.94592811       4.31754664      12.03145033  T        4       0.00084317      -0.00069225      -0.00969408
Ni       1.22015786       0.73494402      14.09889345  T        3       0.00487400       0.00838469      -0.00791079
Ni       3.71949166       0.73912824      14.09601843  T        3      -0.01167254      -0.00627087      -0.00103632
Ni       6.19763493       0.73722069      14.09935202  T        3       0.00902062      -0.00628312      -0.00574045
Ni       8.69412441       0.73824867      14.09641140  T        3       0.01091566      -0.00104344       0.00142848
Ni       2.46934194       2.88484369      14.08705183  T        3      -0.00298637      -0.00427854      -0.00839014
Ni       4.95841268       2.87949461      14.09803147  T        3       0.00111293      -0.00101382      -0.00229205
Ni       7.44675910       2.88340874      14.08593532  T        3       0.00115227       0.00527964      -0.00702168
Ni       9.93681971       2.88041590      14.09676605  T        3       0.00414065      -0.00868130       0.00278451
Ni       3.71345373       5.03852343      14.07031353  T        3       0.00547930       0.00011215      -0.00046058
Ni       6.20225931       5.04232532      14.07253745  T        3       0.00280197      -0.00697697      -0.00050241
Ni       8.69135962       5.03919878      14.06750721  T        3       0.00557339      -0.00444235       0.00917318
Ni      11.18106708       5.04254382      14.07201887  T        3      -0.00328267      -0.00657155       0.00743504
Ni      -0.02612649       1.47896278      16.23791657  T        2      -0.00384983       0.00323422       0.00985385
Ni       2.46060047       1.45938406      16.14863419  T        2       0.01242193       0.00058376       0.02084306
Ni       4.95211596       1.47688444      16.24525935  T        2      -0.00954447       0.01852651      -0.01469932
Ni       7.43740682       1.45867621      16.15409527  T        2       0.01353639       0.00186106      -0.00139605
Ni       1.21777248       3.58971150      16.13944926  T        2       0.00152326       0.00695218      -0.01637054
Ni       3.70967804       3.58499382      16.13921603  T        2      -0.01422790      -0.00195208      -0.00767749
Ni       6.19343373       3.58855811      16.13632966  T        2       0.01046341       0.01156426      -0.00038294
Ni       8.68577667       3.58511136      16.13528275  T        2       0.00079723       0.00222718      -0.01366956
Ni       2.46884833       5.76279142      16.10463265  T        2      -0.00114324       0.00080354       0.00679629
Ni       4.94577573       5.75616557      16.11101524  T        2      -0.00907494      -0.00046830       0.00313687
Ni       7.44577693       5.76255167      16.10235608  T        2       0.01217124       0.00265685       0.00547113
Ni       9.92338060       5.75561301      16.10786605  T        2      -0.00199497       0.00388497       0.02357775
Ni      -0.02830228      -0.02339783      18.15617343  T        1       0.00569034      -0.01400734       0.00195755
Ni       2.45396537      -0.04308134      18.09514982  T        1       0.00266439      -0.00368713      -0.00086539
Ni       4.95112011      -0.02487596      18.15747913  T        1       0.00556039      -0.00694859       0.00458164
Ni       7.43074649      -0.04286728      18.10001330  T        1       0.00074015      -0.00876938      -0.00573152
Ni       1.22264121       2.15393486      18.33140586  T        1      -0.00504344      -0.00882555       0.01864328
Ni       3.68445734       2.14673539      18.34529162  T        1       0.02611228      -0.01092890      -0.00871806
Ni       6.19858862       2.15434356      18.33542455  T        1       0.02413610      -0.00000745       0.03073674
Ni       8.66645512       2.14516194      18.33731829  T        1       0.00980426       0.01098417       0.00251778
Ni       2.46170693       4.34939823      18.10276874  T        1       0.00337235      -0.00056183      -0.00742117
Ni       4.94371120       4.31422114      18.14098769  T        1      -0.00530110      -0.01215778      -0.01430630
Ni       7.43912083       4.35037786      18.09631046  T        1       0.00271495      -0.00890627      -0.00340298
Ni       9.92184099       4.31443242      18.13696710  T        1       0.00218966      -0.01143396      -0.00363539
N        2.44399492       2.14487291      19.82440683  T        0       0.01508387       0.03717715       0.00790564
N        7.43438060       2.19710204      19.82127623  T        0      -0.01261916      -0.01390831      -0.02585814
H        2.45979218       2.97009887      20.44254023  T        0      -0.01750072      -0.00729174      -0.01927624
H        2.42216878       1.30508242      20.42187994  T        0       0.01533405       0.00358731       0.00008269
H        7.41491595       1.38666142      20.45814818  T        0       0.01508538      -0.00404016      -0.02204615
H        7.45235500       3.05037679      20.39834328  T        0      -0.01451055       0.01079390       0.02745061
