66
Lattice="9.95606347910659 0.0 0.0 3.733523804664971 6.46665292094759 0.0 0.0 0.0 28.129091790189932" Properties=species:S:1:pos:R:3:move_mask:L:1:tags:I:1:forces:R:3 energy=-309.61898194769014 pbc="T T F"
Ni       0.00000000       1.43703398      10.00000000  F        5       0.00000000       0.00000000       0.00000000
Ni       2.48901587       1.43703398      10.00000000  F        5       0.00000000       0.00000000       0.00000000
Ni       4.97803174       1.43703398      10.00000000  F        5       0.00000000       0.00000000       0.00000000
Ni       7.46704761       1.43703398      10.00000000  F        5       0.00000000       0.00000000       0.00000000
Ni       1.24450793       3.59258496      10.00000000  F        5       0.00000000       0.00000000       0.00000000
Ni       3.73352380       3.59258496      10.00000000  F        5       0.00000000       0.00000000       0.00000000
Ni       6.22253967       3.59258496      10.00000000  F        5       0.00000000       0.00000000       0.00000000
Ni       8.71155554       3.59258496      10.00000000  F        5       0.00000000       0.00000000       0.00000000
Ni       2.48901587       5.74813593      10.00000000  F        5       0.00000000       0.00000000       0.00000000
Ni       4.97803174       5.74813593      10.00000000  F        5       0.00000000       0.00000000       0.00000000
Ni       7.46704761       5.74813593      10.00000000  F        5       0.00000000       0.00000000       0.00000000
Ni       9.95606348       5.74813593      10.00000000  F        5       0.00000000       0.00000000       0.00000000
Ni      -0.00822740       0.00926174      12.02987872  T        4      -0.00326810       0.00288470      -0.00424284
Ni       2.48129608       0.01240492      12.03084452  T        4       0.00435878      -0.01480185      -0.00886228
Ni       4.97001135       0.01292409      12.02944988  T        4      -0.00445858      -0.00800139      -0.00268118
Ni       7.45773645       0.00925283      12.02911195  T        4       0.00265159       0.00912339       0.00419674
Ni       1.23705162       2.16541704      12.02982849  T        4      -0.00281815       0.00070723      -0.00950866
Ni       3.72575157       2.16640512      12.03030971  T        4       0.00054412      -0.00392894       0.01228485
Ni       6.21461453       2.16574717      12.02920064  T        4       0.00059558       0.00232550       0.01701639
Ni       8.70251966       2.16425419      12.02960775  T        4      -0.00066493       0.00227888       0.00040881
Ni       2.48025878       4.31896051      12.02848375  T        4       0.00666423       0.00387233      -0.00349221
Ni       4.96923248       4.31874388      12.02912121  T        4       0.00405998       0.00948326      -0.00770900
Ni       7.45905496       4.32048207      12.02866660  T        4      -0.00189397      -0.00170921      -0.01358605
Ni       9.94827087       4.32018628      12.02657834  T        4      -0.00660754       0.00249100      -0.00580332
Ni       1.23061311       0.74020166      14.07631917  T        3       0.00250047      -0.00526699       0.02004404
Ni       3.71824651       0.74250846      14.08233507  T        3       0.00045188      -0.00364264       0.01482518
Ni       6.20659948       0.74380756      14.08012439  T        3       0.00881656      -0.01046449       0.03174185
Ni       8.69138094       0.73804071      14.07899511  T        3       0.00839486       0.00321026       0.02201320
Ni       2.47614922       2.88852252      14.08125991  T        3       0.00114894       0.00902639       0.01057195
Ni       4.96377554       2.89035362      14.08320388  T        3      -0.00795413      -0.00115332       0.02572664
Ni       7.44916882       2.89122067      14.08089645  T        3       0.00408229      -0.00989519       0.02443976
Ni       9.94003884       2.89183383      14.07242716  T        3       0.00070999       0.00914229       0.00633611
Ni       3.71744813       5.04601702      14.07251518  T        3       0.00038704      -0.00282508       0.01483902
Ni       6.20705302       5.04533470      14.06940906  T        3      -0.00267946       0.00361676       0.00917586
Ni       8.69582879       5.05033773      14.06690315  T        3       0.00947259      -0.01302810       0.01503463
Ni      11.18680882       5.04665158      14.07091947  T        3      -0.00605623      -0.00038079       0.00838463
Ni      -0.02280312       1.46431921      16.11872647  T        2       0.00480798      -0.00151628       0.01161484
Ni       2.49139121       1.47518915      16.16570742  T        2      -0.00941663       0.00678713      -0.00275823
Ni       4.95703965       1.47523379      16.16567693  T        2       0.01303769       0.00303343       0.00842369
Ni       7.42100239       1.47596816      16.17046355  T        2      -0.00037562       0.00093245      -0.00054420
Ni       1.22458640       3.61429210      16.12211813  T        2       0.00412379       0.00612362      -0.00512061
Ni       3.71076893       3.59767860      16.14379282  T        2      -0.00414906       0.00417269       0.00258833
Ni       6.19912489       3.60338512      16.14530570  T        2       0.00832934      -0.01349993      -0.00977844
Ni       8.69102594       3.61948829      16.12055593  T        2       0.00368797      -0.00498405       0.00400374
Ni       2.47177724       5.77552901      16.11831285  T        2      -0.00449566      -0.00688209      -0.00075735
Ni       4.95550377       5.78077525      16.10277649  T        2       0.00510298       0.00216609      -0.00717268
Ni       7.43920639       5.77241575      16.10655909  T        2       0.00537508      -0.00436917      -0.00349879
Ni       9.94089509       5.77264015      16.10828398  T        2      -0.00015522      -0.00387744       0.00763990
Ni      -0.02802613       0.03681210      18.15557056  T        1       0.00785012       0.00242076      -0.00065937
Ni       2.45884445       0.01471850      18.14471534  T        1       0.01075922       0.01168103       0.00812082
Ni       4.95967280      -0.01367312      18.10787172  T        1       0.00426079       0.00116219       0.00749643
Ni       7.44799104       0.01495335      18.15045736  T        1      -0.00886620       0.00333490       0.01617084
Ni       1.20726267       2.18790300      18.15716841  T        1      -0.00020252      -0.00644918       0.00260052
Ni       3.69969167       2.19030315      18.30083475  T        1       0.01441654      -0.01875491      -0.01064144
Ni       6.20414679       2.19015859      18.30673912  T        1      -0.00120093      -0.00179180      -0.01238094
Ni       8.70096416       2.18872883      18.15359011  T        1      -0.00433326       0.00212982       0.02609828
Ni       2.45382851       4.35259538      18.14673575  T        1       0.00631023      -0.00097154       0.00637004
Ni       4.94473866       4.38657417      18.10214117  T        1       0.00541355      -0.00760381       0.01404282
Ni       7.45327976       4.35244758      18.14336606  T        1       0.00010892      -0.01853622      -0.00220680
Ni       9.93653605       4.33512894      18.15601781  T        1      -0.00553164      -0.00252615       0.00710292
N        4.20953646       2.12527178      20.26027680  T        0      -0.02844905      -0.02964984      -0.01920992
N        5.67553583       2.33335405      20.26232008  T        0       0.00628692       0.01080039       0.00678200
H        3.73422380       2.81609512      20.86399574  T        0       0.00732263       0.01140083       0.02713257
H        4.01707980       1.17538386      20.61419063  T        0      -0.01982367       0.00052129       0.00560357
H        6.14149246       1.67716627      20.91027587  T        0       0.01248195      -0.02305605       0.01842728
H        5.85818004       3.30117852      20.57205408  T        0       0.03650348      -0.01230464       0.00809085
